27
HS , Energy = -5076.012745 H
C -2.28190831 -2.62210518 -7.76955353
H -2.56284663 -0.56787565 -7.85553475
H -4.03818994 -3.47510426 -7.05136733
H -1.94432387 -3.35920341 -9.69484777
S 0.40213316 -3.31569812 -5.65738597
C 1.57606301 3.29373354 -7.35844928
H 3.42391523 3.96597767 -6.68727406
H 1.01832504 4.44632529 -9.00859059
H 1.79096721 1.31185662 -7.93261306
S -0.79847573 3.47813910 -4.81583865
C -2.08354987 5.15638282 2.93197739
H -1.21863646 5.12371124 1.05214145
H -2.16709842 7.13010952 3.60467260
H -4.02585861 4.45405403 2.73259777
S -0.27975217 3.16867996 5.15203571
C -1.59027439 -3.03107071 8.07979081
H -1.89832095 -0.98326605 8.17172587
H -0.97425784 -3.72263174 9.95295889
H -3.40997359 -3.94032514 7.63279479
S 0.79130768 -3.71820521 5.62317417
Fe -0.03478993 -0.25266009 -2.35732660
Fe 0.26452015 -0.52658586 2.52302989
S 3.94044001 0.17720368 -0.16367398
C -2.57249201 -1.25056306 0.19231189
H 3.82334645 2.70489675 0.20264152
H -4.27428958 -0.05798262 0.40347862
H -3.11427509 -3.26422004 0.14094785